147 
Lattice="100.0 0.0 0.0 0.0 100.0 0.0 0.0 0.0 100.0" DFT_PE=0.0 Properties=species:S:1:pos:R:3:tags:R:1:dft_forces:R:3
H 61.9069 61.7246 61.455 3  1.74389 -5.02648 5.85265
H 64.9315 61.6193 60.1498 0  -3.14446 2.64875 1.32636
H 63.2585 64.0283 60.0017 3  1.98281 1.80032 2.96774
H 66.1772 64.3622 59.5493 1  -0.617012 1.38526 -3.94286
H 61.1643 59.8775 63.4344 0  -5.25491 -0.690067 -3.22607
H 59.8764 62.186 63.5967 3  -2.88065 6.22472 3.3628
H 62.9763 63.8719 63.168 2  -0.396165 1.41455 3.07173
H 63.9747 60.3232 62.7531 3  4.16213 4.21188 -5.22379
H 59.7393 65.7825 71.5676 0  -0.943123 6.52386 5.96205
H 57.4129 63.5904 65.1475 0  2.47494 -0.820324 -2.80138
H 60.6434 64.2505 61.603 3  -1.43721 -0.0580584 5.30034
H 59.8741 64.9138 64.2995 1  -0.0483171 -4.96684 -0.147577
H 64.5506 65.9015 61.7388 2  -0.321263 3.61786 4.87316
H 65.7981 63.3835 62.4971 2  -6.80017 6.15424 0.769144
H 63.2572 59.1401 65.4499 3  4.49888 6.05647 -5.68713
H 64.7044 59.6417 67.9108 3  0.887105 -3.09633 3.96705
H 65.5246 60.8199 65.0644 2  -3.24299 1.16875 5.07555
H 59.8625 62.6995 66.6036 3  -1.4481 5.05704 -2.57761
H 62.5787 61.812 65.0085 2  -2.46096 0.0386991 -3.45318
H 58.7589 65.447 66.9438 3  -1.85742 -5.37235 -1.49294
H 62.3397 64.4227 66.3201 2  3.42956 3.7676 4.44385
H 64.9004 63.5949 65.289 2  -1.57441 -4.22196 6.42613
H 62.0771 59.195 68.5975 0  -5.14545 0.946465 3.22096
H 64.7738 58.88 70.5446 0  1.45846 6.38228 -3.45801
H 60.7063 60.0501 66.2929 0  4.76251 -3.97975 -1.93362
H 61.2888 61.6209 68.7743 3  0.618862 7.52581 -2.14548
H 62.5215 60.5333 71.3495 0  2.88292 -0.268421 4.27439
H 63.9182 62.2189 67.4484 1  4.04625 2.61812 4.55304
H 65.1735 65.5114 72.7285 3  -5.51022 -5.02451 1.42046
H 59.2958 63.9058 69.4933 3  -0.636694 0.56587 2.45597
H 65.9368 64.5514 69.9793 2  -1.85517 3.9002 -3.45365
H 63.0121 63.9793 69.5351 2  -0.364073 2.85058 4.98862
H 63.7698 62.9497 72.1317 3  2.95983 -5.38731 -4.57629
H 62.2754 65.2102 72.3456 3  -0.584529 0.851235 -1.78272
H 60.9221 62.7789 71.4959 0  3.21799 6.73508 -2.71171
H 65.0622 61.5894 69.9279 2  -4.56541 6.59119 -0.0290972
H 63.0087 68.3919 61.0626 1  -4.08715 -3.41254 2.74263
H 61.6 66.2698 59.8759 0  0.0285993 -3.30597 5.78583
H 66.0829 68.7709 60.0036 3  -2.31935 1.35165 -4.20686
H 64.3357 66.7104 59.0301 3  -1.58256 4.73078 4.66064
H 64.246 70.8465 61.3692 3  4.18567 -0.0831796 -3.4344
H 60.2498 68.4573 60.9646 0  -5.98651 1.15292 0.155297
H 61.6225 66.5837 62.9479 2  2.22165 6.6451 -2.1364
H 65.3661 68.3215 62.9603 2  -1.91481 -5.92601 -5.85391
H 61.3888 70.6968 61.9278 0  1.04734 -5.75364 5.95924
H 59.7238 69.0342 63.7959 1  -5.50176 -1.24362 0.680979
H 62.9375 69.0296 64.2154 2  2.84637 1.94441 2.66888
H 66.1259 70.8644 63.6178 2  0.653223 -0.383347 -4.2833
H 60.1239 71.8203 64.2923 0  -1.1708 -0.910971 1.5631
H 65.2166 73.3305 62.6767 0  -6.3423 2.34169 -6.3008
H 63.1633 71.9397 63.7544 1  1.81515 2.46199 -2.19597
H 57.4567 66.6229 64.5388 0  1.53108 -0.113828 6.4666
H 61.2261 67.1105 65.7793 2  3.03134 -4.90606 2.24083
H 65.0727 68.5877 65.9907 1  -4.92373 2.01613 0.684102
H 63.2006 70.0965 70.6627 3  4.78631 3.05161 3.47028
H 60.8552 70.0731 66.415 1  3.92185 3.29833 1.97311
H 61.7397 73.1342 66.2415 0  -4.74611 5.09382 0.521066
H 63.5948 70.8675 66.4465 1  5.46869 3.51567 0.143552
H 63.3973 74.768 64.7183 0  0.576144 -1.10758 6.30578
H 66.1799 74.2089 65.261 3  0.992103 5.14543 -5.76871
H 64.4055 73.4799 67.2886 3  -3.45584 -0.889022 -0.264738
H 58.8063 68.3306 66.6597 0  2.52167 -6.85496 6.69695
H 58.8458 67.2696 69.4208 0  -1.41937 0.519523 -5.89294
H 61.5474 66.0658 68.5303 1  -5.4348 -2.3443 0.516804
H 60.4533 69.8206 69.2967 0  2.8626 -0.610643 -1.06541
H 64.8401 67.0498 69.9481 2  0.881174 -0.308794 6.54603
H 62.9503 68.4684 67.9323 2  -3.03091 -4.26849 5.73516
H 64.5127 65.9401 67.457 2  -3.99397 2.38993 -1.83219
H 62.0596 71.9874 68.7808 3  6.49759 -2.13721 -6.21407
H 65.0117 71.9275 69.396 3  -6.46182 -2.05619 7.23891
H 61.734 67.7957 70.6311 3  0.626691 -7.02006 2.08558
H 63.8858 68.1092 72.5564 0  -1.32023 6.5189 3.36227
H 65.5843 70.5861 71.928 0  -6.25491 -5.42603 -2.93034
H 58.6921 66.4585 62.1182 0  -4.35608 -2.92183 2.8894
H 63.9792 66.3758 64.6756 2  -6.45026 -2.2157 5.48392
H 68.0743 62.1549 60.4206 3  0.670298 -2.20892 0.0476899
H 69.12 64.634 59.2898 3  3.64595 5.70736 -1.64571
H 68.0792 65.1668 72.3473 3  -2.62927 -5.19261 -4.75136
H 68.5732 59.4465 64.366 0  -1.13348 0.96561 -2.49191
H 66.6244 60.7127 62.3274 3  -3.09752 -4.99829 4.61172
H 67.6431 62.6154 64.7635 2  -6.43353 -1.1596 -3.76266
H 69.6083 61.4112 62.7457 3  -2.98078 1.39184 -4.71771
H 70.9836 60.837 65.1943 3  -5.11723 2.89612 -2.51233
H 72.4036 62.1558 62.858 0  -3.63134 4.11211 -6.23814
H 68.3839 64.2057 62.4033 1  -4.59447 -3.68315 1.05854
H 66.7131 65.6782 64.0902 2  -2.21455 4.03347 -2.0169
H 70.8944 62.9618 60.5597 0  -6.03712 -6.09821 -4.45571
H 70.2395 63.6228 64.2822 2  -0.789914 4.29929 3.039
H 73.0969 64.6558 63.1687 3  -4.38234 -2.04917 -0.591359
H 66.6728 58.3585 66.1187 0  -2.86435 6.19314 0.53422
H 67.151 61.1079 67.3219 2  4.12407 -1.63276 -6.07535
H 69.5465 62.78 67.0578 2  4.68827 0.753134 0.357549
H 69.4015 59.232 67.2128 3  -6.46089 -2.12364 -1.89997
H 71.6542 60.9488 67.7391 0  6.64652 -5.30137 -3.35939
H 67.0119 64.0508 67.2688 2  2.94164 5.99304 -1.26458
H 69.1998 65.6496 66.2902 2  -2.50911 3.53375 -6.73215
H 71.7921 65.8042 65.5559 2  7.14262 -5.339 3.50187
H 72.6403 62.9882 65.735 1  1.05209 -5.34561 -1.14143
H 74.4803 64.9243 66.8583 0  -6.26002 -1.53952 5.22649
H 67.0326 58.6511 69.0381 3  2.51916 -3.46713 -6.12476
H 67.9312 62.2946 69.7263 2  -2.96274 2.32235 5.30753
H 69.825 60.1371 70.0176 3  3.90785 2.17257 3.74254
H 70.8745 62.8015 69.9976 3  -5.80862 -1.68493 -2.6132
H 73.4758 62.7508 68.6377 0  5.35853 5.01756 4.22511
H 68.9548 65.3779 69.5153 2  -1.31984 -6.02697 0.662178
H 71.0846 65.1423 71.3677 3  1.89057 1.53056 5.29873
H 71.2845 65.0213 68.1114 2  4.66743 -5.98543 2.95835
H 73.8161 65.2938 69.9244 0  3.41685 2.94688 -5.1153
H 67.3231 60.0699 71.6583 0  -4.37206 -0.936749 1.4206
H 66.412 62.7575 72.5029 3  6.33322 4.50731 1.98466
H 69.3934 62.4581 72.2391 0  -1.39497 1.04784 -1.58026
H 67.3647 66.5065 61.2593 2  -2.17044 -2.26715 -0.861326
H 67.0162 66.5202 58.089 0  1.08152 -1.21907 -5.48893
H 69.2041 67.6772 59.4855 0  -4.78633 -2.02542 -4.09525
H 67.1387 71.2954 61.0296 3  1.90434 -4.24801 -3.7483
H 68.3233 69.003 62.3596 2  1.83382 -1.10297 -6.9568
H 70.9197 65.6875 61.2019 3  1.56837 6.24573 -2.05968
H 71.0568 68.7383 61.1479 0  -2.66475 -3.796 0.515103
H 69.5887 66.6679 63.548 2  -2.54157 1.173 2.44258
H 72.2335 67.3137 63.0822 3  -2.6587 2.53248 -2.2249
H 69.9643 71.4767 61.6518 0  -1.46979 -2.44523 -4.62332
H 69.0401 70.647 64.6494 2  5.67241 -3.89669 -1.16315
H 72.061 70.5327 63.4063 3  0.586281 -3.98889 -4.46523
H 68.1106 73.3342 63.0989 3  -6.11314 1.56821 -5.04627
H 70.7931 73.0638 64.0114 0  -0.942747 -4.31846 -4.8881
H 67.7256 68.1836 65.0399 2  -4.64203 2.80182 -3.2124
H 67.1261 66.9345 67.5992 2  -2.68696 2.07921 0.782452
H 70.7372 68.3597 65.3742 2  4.9529 6.69882 0.634531
H 74.5479 66.6298 64.7436 0  -3.54755 4.98009 -5.92194
H 73.1041 67.0724 67.8243 3  -1.77263 -1.31565 -3.68207
H 68.5318 69.8093 67.352 2  -1.66657 -6.37475 -1.64641
H 66.3832 71.4688 66.2008 2  -4.72598 -1.3791 2.89681
H 71.2057 71.3745 66.2149 3  -4.69088 -0.221431 -4.90188
H 73.2122 69.1936 65.7363 3  4.72337 -1.70418 4.38908
H 68.8442 73.2301 66.0305 3  0.221245 1.70827 5.99649
H 67.8185 67.888 69.9299 2  -5.57434 -1.91095 4.48502
H 70.2991 67.7206 68.3927 2  -4.84132 2.52218 -3.69903
H 72.4571 67.8538 70.6396 0  -6.06913 -3.18734 3.94365
H 65.7301 69.3098 68.6077 2  -4.87828 0.685382 3.37788
H 67.6823 71.0452 70.0539 3  -6.00055 -5.86462 -5.16839
H 70.3218 69.936 70.5094 3  3.43311 -2.74523 -5.20212
H 69.9136 71.9396 68.6333 0  0.70724 2.43416 2.76069
H 72.2643 69.8428 68.5198 3  -2.78834 -3.97754 -0.629455
H 67.1925 73.3999 68.1905 0  -1.95617 -2.65131 -3.79598
H 66.771 67.7402 72.602 3  -5.98534 -5.04189 5.44009
H 69.7721 67.3339 71.8701 3  -1.29525 5.30235 -4.24579
H 68.3724 69.9109 72.5031 0  -2.58512 6.09615 -0.0189917
147 
Lattice="100.0 0.0 0.0 0.0 100.0 0.0 0.0 0.0 100.0" DFT_PE=0.0 Properties=species:S:1:pos:R:3:tags:R:1:dft_forces:R:3
H 60.8545 60.963 60.5733 0  4.80373 -2.6663 3.02255
H 63.6125 61.8335 59.585 0  5.05867 4.98964 1.35074
H 61.532 63.8327 59.3662 3  -1.05054 1.91105 2.1316
H 64.2732 64.5483 59.0088 3  5.20134 0.646565 -3.02835
H 59.1217 61.2251 62.9858 3  -4.73908 2.14282 -1.37941
H 61.3231 61.3226 64.89 2  -3.05131 1.1788 0.00751787
H 61.2986 63.098 62.5644 2  -2.96677 -1.79715 0.153149
H 63.2267 61.0403 62.3469 2  6.54754 -5.2189 3.63506
H 57.6264 65.1252 71.6017 0  2.2655 2.07318 -0.335074
H 57.1304 63.1191 63.4012 3  -6.5209 -0.795035 -5.37268
H 58.9414 63.2668 60.8542 3  -2.26055 -6.18732 2.72152
H 59.3524 63.4156 65.4173 2  0.984422 -3.62658 3.90212
H 62.0837 65.9541 61.7902 2  -4.18022 -2.6238 0.315945
H 64.0275 63.8258 61.8196 2  -0.834959 2.40926 -6.29294
H 61.2086 59.2072 62.9675 0  -6.01969 -2.4291 5.4826
H 62.6251 58.4719 65.153 3  -3.52296 0.989061 3.17802
H 64.4541 58.2131 62.9589 0  4.4374 6.25207 0.915701
H 57.5874 61.0325 65.3396 3  3.01142 -4.49242 -2.0676
H 62.8458 60.4358 67.2768 2  5.00324 3.62798 5.69625
H 56.5785 63.799 66.211 3  -4.3671 -4.08178 6.51196
H 59.9226 61.4488 67.52 2  1.57975 2.93814 0.00185021
H 63.5044 63.1929 64.3997 2  1.06812 4.2868 1.41946
H 60.8153 58.6207 67.705 3  1.09147 -1.40771 -4.97934
H 63.4211 57.5789 67.712 3  1.84426 -3.12658 1.68424
H 59.5851 58.9909 65.2431 3  -5.78231 5.60992 -5.3447
H 58.0899 59.0988 67.9631 0  5.25092 -4.76473 -0.985535
H 59.5479 59.9761 70.2276 3  -4.17756 4.02335 4.11238
H 65.5384 59.7017 67.4995 2  1.07293 0.858321 -2.6142
H 63.5417 63.3726 71.8202 1  4.49228 0.454473 5.97413
H 57.0469 61.6601 68.0688 0  0.36348 1.07335 -1.77467
H 63.9206 64.5061 69.3051 2  0.220089 1.77642 -3.1308
H 64.5321 61.5899 69.5754 2  5.94697 -1.21348 3.76074
H 61.1217 61.1433 72.3405 0  -3.00218 2.9404 4.79653
H 61.6819 62.6256 69.7767 2  3.5959 0.454815 -1.58178
H 58.7702 62.6755 70.6164 3  5.87428 2.05266 5.92271
H 62.4922 59.6521 70.1806 3  4.61772 3.40443 3.00095
H 60.395 68.6427 61.1093 3  -5.2094 -4.26976 4.53929
H 59.6092 66.08 59.925 3  -1.38093 -6.32912 4.99088
H 63.0836 69.4621 60.1121 3  -2.46123 0.970915 -0.671026
H 62.1529 66.639 58.8763 0  0.488968 2.55564 5.93376
H 61.7333 70.8857 62.1206 3  -1.37486 3.58041 -0.378939
H 58.0944 67.6277 62.7015 3  0.930124 0.629662 2.74326
H 59.5808 65.233 63.1256 2  -6.34115 -3.09751 -5.72734
H 60.8532 67.9803 63.7911 2  2.63458 1.95571 1.4483
H 59.0524 70.3476 63.3771 3  3.71307 3.68313 -0.0838892
H 57.5378 68.855 65.3464 3  1.66913 -2.63966 1.50919
H 60.084 68.9715 66.3822 2  2.14134 -4.12173 6.85133
H 62.3278 70.4035 64.9375 2  2.40865 -2.65752 -1.99211
H 58.8221 71.4714 66.0095 0  0.0808648 -1.14942 -4.70722
H 63.6389 72.9635 64.0657 0  2.18613 -5.98813 -5.19367
H 60.7547 72.8301 64.1755 0  2.48482 0.165626 1.46838
H 56.4613 65.9703 64.297 3  3.04957 -5.70543 5.59183
H 58.8806 66.2033 65.7094 2  -5.71207 -3.68436 2.24689
H 62.9484 67.8669 65.8589 2  -0.214247 3.47842 2.25455
H 62.2574 68.2496 72.0448 0  -4.38666 4.73522 -5.78364
H 57.5078 69.141 68.0883 0  -5.38532 -6.14385 -0.557326
H 59.7155 71.2375 68.7138 0  -6.39808 -2.19015 -4.11315
H 62.5105 69.8822 67.838 2  5.79532 2.07527 0.756693
H 61.599 72.5338 66.9618 3  2.20991 -4.51576 -4.10979
H 64.6249 72.2186 66.6591 1  -0.0765427 3.00085 0.527716
H 63.4447 72.1546 69.2946 0  -5.59022 4.23703 5.24333
H 56.2809 66.661 67.0143 0  -2.43645 -1.53562 4.43797
H 56.9127 64.213 69.1413 0  5.04385 -4.0988 4.94584
H 59.562 64.0688 68.2371 2  4.60553 6.25245 -2.21253
H 58.2794 66.5636 69.1851 1  -1.39708 -5.41267 6.58465
H 62.489 65.7041 73.0548 0  -4.89067 5.03994 3.50407
H 61.0346 66.4936 67.4955 2  -5.13458 -4.38999 6.56016
H 62.0137 63.4504 67.01 2  -5.28977 -4.63559 0.815352
H 60.1275 68.5725 69.4657 1  -1.96765 -1.06383 -5.32652
H 61.5399 70.7664 70.7279 0  -4.50712 0.261603 2.44473
H 61.4127 65.6452 70.0731 2  1.95016 -3.40234 -2.80271
H 60.4624 64.0192 72.3706 3  6.63159 4.17221 -2.13286
H 59.9294 66.8734 71.8958 0  1.48345 0.586603 4.69059
H 57.3703 65.4094 61.4123 0  3.6252 -4.72468 3.86228
H 61.5966 65.4093 64.9218 2  1.12154 -2.3619 2.19844
H 66.4751 62.4769 60.1895 3  3.73415 -3.11305 2.19052
H 67.1951 65.2809 59.3418 3  5.24746 3.66386 -0.494862
H 66.4381 62.4769 73.3264 0  -4.88771 3.10122 -4.80614
H 67.3049 58.9177 63.6216 3  3.58154 -5.21832 2.64742
H 65.9359 59.9161 61.141 0  -4.51872 -3.46391 2.40245
H 66.0858 62.3738 63.0527 2  -4.67082 -3.42069 1.67238
H 68.5432 60.6836 61.5774 3  4.86348 -3.37604 -6.65286
H 69.8236 60.2588 64.0327 3  4.55544 6.31143 4.76623
H 71.1792 62.1562 62.2788 0  5.18203 2.4712 -2.61717
H 66.9865 64.8781 62.4945 2  0.36129 3.92987 3.14748
H 64.0863 65.949 63.8342 2  5.17126 -1.78424 4.67421
H 69.2654 63.5039 60.813 3  -6.69326 1.20614 -4.46875
H 68.7444 63.0077 63.852 2  4.02679 -3.67834 -7.17373
H 71.182 64.7506 63.4466 3  -5.01859 2.31043 -6.3819
H 65.4433 57.5477 65.5208 3  2.69874 0.794862 -5.69937
H 64.8164 60.5312 64.7589 2  5.95069 -0.615201 -5.80534
H 67.4285 61.2487 65.5535 2  -6.66291 2.00952 -6.3183
H 67.9848 58.6292 66.3528 3  -6.14036 2.15982 -5.78502
H 69.8155 60.6421 66.8064 3  5.49973 -1.1363 -3.04775
H 65.036 62.3679 66.9412 2  -7.45843 4.81462 4.53665
H 66.448 64.1708 65.2008 2  5.03515 6.63696 0.792322
H 68.849 65.8719 64.6059 2  -2.47957 -1.63119 -6.3812
H 71.421 62.3948 65.2449 3  -4.46965 -2.836 4.5386
H 71.419 65.2706 66.1363 3  1.31284 5.87224 3.29161
H 66.2836 56.9212 68.0501 0  3.67217 4.55435 -5.93576
H 67.2894 61.7809 68.6381 2  -4.1767 0.563317 0.735678
H 67.873 58.8633 69.2374 3  4.25223 4.49605 -4.60396
H 69.7438 60.9787 69.5511 0  3.40992 0.592069 -3.16276
H 71.3371 63.0187 68.1191 0  2.59453 -4.96982 -4.99692
H 66.5792 64.4429 68.045 1  -2.86875 1.13259 -5.74983
H 68.635 62.3506 71.7704 3  7.55311 3.39638 -1.89969
H 68.8651 63.6618 66.6496 2  0.842809 0.450901 -2.71446
H 69.0765 64.2356 69.3962 1  -4.26047 3.56156 -5.89668
H 65.0613 58.4478 70.2493 3  3.79472 -1.59379 -4.89031
H 64.0285 60.6537 72.2237 0  0.143607 -2.08669 2.07225
H 66.6874 60.549 71.129 3  -2.29071 -1.09991 -5.94046
H 64.9959 66.3615 61.305 1  6.09367 1.41439 -8.20257
H 64.8339 67.2912 58.4767 0  1.81471 0.0876497 5.6135
H 65.65 69.7747 59.4375 0  -5.10447 5.67167 -6.79965
H 64.5713 71.1326 61.9173 3  4.25735 2.21677 -2.49931
H 63.3862 68.553 62.8794 2  -1.13162 3.40546 -1.18837
H 69.4528 66.1296 61.6395 3  0.0143692 0.543341 0.639408
H 67.5498 67.7902 60.2161 3  4.08809 -1.47762 2.53405
H 66.4567 67.5993 63.4111 1  0.00621466 2.22561 -1.63782
H 69.2898 68.7482 62.3162 3  2.89928 -5.04876 -1.46497
H 67.1671 70.388 61.6173 0  -3.38984 5.0711 2.37513
H 65.3206 69.8614 64.7248 2  3.41276 4.63697 -0.581428
H 70.3458 70.0256 66.0535 0  1.56262 -0.935096 4.2049
H 66.2931 72.7073 64.2174 0  -3.15209 3.4421 -0.899163
H 68.7156 71.2738 63.8678 0  -5.14571 3.21662 4.40812
H 66.4178 66.9296 66.1612 2  3.69144 -4.68875 1.45135
H 64.0375 65.2947 66.5663 2  4.09895 1.84381 -2.97127
H 68.2298 68.7169 65.0833 2  2.06655 -5.41462 1.38121
H 71.1456 67.6859 64.6622 3  -2.11582 -5.71415 -2.00301
H 71.3424 65.6895 69.2376 0  0.240621 6.758 3.41849
H 66.3643 67.0134 69.0316 2  0.764181 -1.64424 5.41917
H 65.3974 69.2629 67.3342 2  -4.66188 -5.251 5.87997
H 68.2605 69.2365 68.0793 1  -1.65135 4.84759 -6.48192
H 71.197 67.96 67.5888 0  -0.354602 -0.898026 0.156379
H 67.5724 71.3894 66.5826 3  3.08484 -3.9862 4.34716
H 66.4995 64.0592 70.8121 2  -2.61575 1.44225 -0.4321
H 68.9903 66.4775 67.3293 2  4.89238 -4.00442 -0.885293
H 69.957 65.2451 71.8633 0  -2.34419 3.75567 -2.45765
H 63.5593 67.2278 68.7784 2  -6.50205 -3.08276 -4.43494
H 64.1981 69.5506 70.2918 1  1.32385 -2.21215 -5.41013
H 67.6305 66.6293 71.6667 3  0.651581 -1.97104 2.65294
H 67.0553 69.183 70.6835 3  -5.53638 -5.79191 4.72417
H 69.7169 67.9146 70.256 3  -4.01342 -0.0808524 -4.09033
H 66.079 71.4144 69.0582 0  5.07265 2.33539 1.48367
H 65.0902 65.0099 73.358 0  -4.26453 -3.17251 0.142275
H 67.9504 64.8212 73.8334 0  -5.8208 -3.68408 4.54457
H 64.7801 67.1427 71.521 1  6.57997 5.14918 -1.47295
147 
Lattice="100.0 0.0 0.0 0.0 100.0 0.0 0.0 0.0 100.0" DFT_PE=0.0 Properties=species:S:1:pos:R:3:tags:R:1:dft_forces:R:3
H 58.9937 59.173 65.2442 0  3.63259 -4.83842 4.59819
H 61.2787 59.5943 63.2454 0  2.19624 4.21313 5.22038
H 59.529 61.9499 63.7525 3  1.25112 5.69428 -5.19403
H 61.7002 61.9835 61.8454 3  6.03686 0.245367 -4.89875
H 58.501 60.0188 67.9207 3  -4.60386 -5.97723 -0.457678
H 61.3679 60.1098 69.1204 2  -6.95133 -3.40608 4.31738
H 60.3164 61.7529 66.8339 2  -1.45022 7.41814 0.88293
H 61.75 59.5075 66.1726 2  0.410487 3.30453 5.71574
H 60.1607 65.1149 74.9141 0  -2.37781 0.284938 -5.34057
H 56.4898 62.2863 68.4455 0  -6.38241 3.01309 -4.06601
H 57.5943 61.8871 65.9077 3  1.99206 1.57114 1.24889
H 59.7468 62.6706 69.6802 2  3.13972 5.20299 -4.73782
H 60.6142 64.4889 65.1721 2  2.11995 1.23479 5.23591
H 62.314 61.946 64.7059 2  -4.6652 6.95668 4.58627
H 60.1224 57.6342 67.2799 0  -1.94073 -3.86236 -2.46754
H 61.8618 56.8923 69.46 3  0.705414 7.30049 -4.18894
H 62.8163 56.7495 66.5368 0  5.48367 -2.67542 -4.17845
H 57.5308 60.8926 70.5081 3  -2.75104 -1.36703 -4.0768
H 63.5501 59.921 71.1138 2  4.24438 1.32528 0.15687
H 57.4928 63.8575 70.3923 3  -5.98223 -1.68322 7.60603
H 60.8978 60.9972 71.7651 2  -4.36219 -3.91693 2.17286
H 63.0303 61.7287 67.5838 2  6.72878 6.9411 -1.79364
H 61.3772 57.9848 72.1385 3  -1.35083 3.5591 3.08481
H 63.9872 57.0763 71.1893 3  -0.517945 2.98857 3.47221
H 59.3004 58.4031 70.0972 3  2.3972 -6.66686 2.98424
H 58.7992 59.7133 72.755 0  5.28191 0.694274 -5.22011
H 61.1439 59.3672 74.5881 0  -4.53455 6.53666 6.4931
H 66.3751 59.0065 70.392 2  1.15175 -0.791247 6.81125
H 65.5889 63.255 75.5658 3  -6.1429 -4.90888 2.96951
H 58.4051 62.5386 72.9428 3  -0.0469084 -3.81844 -2.1357
H 67.8013 64.1578 72.2667 2  -4.91094 -1.85474 6.53646
H 66.1293 61.5168 72.236 2  1.52019 6.18499 1.92734
H 63.4716 61.059 75.4906 0  -1.90597 1.64778 -6.68152
H 63.2783 62.511 73.1839 1  -3.26606 -5.63515 2.69216
H 60.8074 62.237 74.5113 3  -1.25546 0.211451 -4.20001
H 63.7505 58.6872 73.6685 3  6.09006 4.07428 -4.6498
H 59.5438 67.033 64.1117 3  -5.69345 5.55137 3.75395
H 57.8799 64.4596 64.1156 3  0.248763 3.09781 0.0441926
H 61.6442 67.1401 62.2453 3  5.41949 5.89587 -0.963392
H 60.0919 64.4158 62.2343 3  -1.5915 3.36025 5.68839
H 61.4 69.3451 63.8981 3  3.70333 7.10688 -0.81614
H 57.5545 66.9783 66.0095 3  2.25715 4.28202 -1.33274
H 58.5719 64.2231 67.3628 2  3.12383 -4.72478 -6.97277
H 60.2601 66.6747 67.0241 2  2.90491 5.55564 -4.30564
H 58.9599 69.4215 66.1055 3  3.67968 3.84725 0.226187
H 58.2632 68.7698 68.6063 3  1.48444 -3.72755 4.46011
H 61.3286 68.1102 69.5157 2  -1.12516 1.04081 -0.311073
H 61.8733 69.1589 66.7757 2  -6.5639 -7.15249 -6.49466
H 60.1334 71.0585 68.4402 3  6.12256 5.93369 -7.41153
H 63.8061 70.8366 64.809 3  5.41859 -0.949651 0.869354
H 61.1892 71.7489 65.6144 0  2.75486 0.309738 0.910098
H 56.8812 66.2481 68.6846 3  -5.9934 -6.8368 -3.96464
H 59.5456 65.6325 69.6051 2  -6.23209 -0.739868 -0.440302
H 63.2885 66.8727 67.8116 2  -5.89043 -3.30762 6.45907
H 64.0056 68.1079 72.3966 1  -4.88457 -0.421116 6.47229
H 59.5772 69.6918 71.0437 0  5.54459 -4.63139 4.71931
H 62.1921 70.8794 70.2612 3  -2.98239 -6.0039 -1.45286
H 64.2283 69.1966 68.9291 2  4.85397 -1.44436 0.618996
H 63.041 71.5013 67.7609 3  6.51903 1.86582 3.46134
H 66.0907 71.2606 66.6941 3  -2.30089 -1.25449 2.17849
H 65.3033 71.8397 69.2677 0  3.66995 5.16731 -3.05869
H 57.5225 67.7214 71.1651 0  -5.26705 -0.688288 1.25078
H 58.1608 65.3657 72.6889 0  2.69218 6.57443 0.092143
H 61.0056 64.1936 72.0349 2  1.85278 -0.68974 -3.02984
H 60.2691 67.1921 72.1243 1  3.06861 0.94162 3.34041
H 64.7619 65.7326 74.0481 3  -0.991773 3.5046 1.74343
H 62.5951 66.1035 70.9117 1  4.31569 1.6615 -0.0369681
H 62.648 62.7688 70.2701 2  -4.5238 -0.0532295 2.03529
H 61.6164 69.5544 73.0755 0  6.06213 3.95268 6.62565
H 64.1395 71.0511 72.1958 0  4.24023 -1.34123 4.70879
H 64.9245 63.9892 71.6373 1  -0.190167 -2.49858 0.65899
H 62.8011 64.1969 75.5776 3  -1.10548 4.16824 -4.77032
H 62.154 66.8292 74.1575 3  5.45839 6.10354 -2.23683
H 55.9698 64.3069 66.4487 0  -4.10042 2.44818 4.20859
H 61.494 64.293 67.9603 2  1.35348 0.713803 1.98942
H 64.1 60.4436 62.569 3  0.454658 4.37866 -3.44195
H 64.5978 63.1532 61.0921 3  -2.56312 6.90058 1.70358
H 68.1005 62.2388 74.4715 3  3.54305 -2.12786 2.20995
H 65.4906 57.6042 66.2027 3  6.29991 2.51607 -4.33096
H 63.6603 58.1426 64.1532 0  -2.98987 -1.61704 1.77279
H 64.5388 60.3774 65.5879 2  -2.55684 -5.18586 -5.88026
H 66.3818 59.0549 63.5064 3  5.9002 0.437994 -4.10222
H 68.3218 58.1503 65.7737 3  4.97792 -4.52247 -6.27495
H 69.1008 60.0215 63.3125 0  5.45892 4.14853 3.73753
H 65.247 63.0653 64.1769 2  -0.242053 -1.36228 -5.81123
H 63.4896 64.3488 65.986 2  4.44873 5.13821 -0.251319
H 66.6924 61.8717 62.1297 3  3.53604 -6.06084 -2.01301
H 67.4089 61.4559 64.9001 2  -4.20558 -6.95291 -5.84519
H 70.3728 62.1506 65.0104 3  -5.51085 -0.945518 -1.29576
H 64.6207 56.2479 68.6028 3  3.49579 -6.46814 -0.677011
H 64.2825 59.2398 68.252 2  6.06064 3.33565 1.99105
H 66.9475 59.9807 67.5007 2  1.23357 5.80697 -1.06714
H 67.3169 56.7986 68.1537 3  -3.08276 -4.35596 -5.10508
H 69.2236 58.8707 68.2867 3  -3.21446 -2.90737 -4.83611
H 65.4062 61.5692 69.5 2  6.04708 1.3619 -1.89996
H 66.1557 62.798 66.9967 2  0.321915 -3.14568 4.32407
H 67.8169 64.3069 65.1158 2  -0.764166 -2.88351 6.20948
H 70.7825 59.3154 65.6413 0  -1.5911 -4.79493 2.13467
H 71.4402 63.7644 67.4754 3  -5.06159 4.94493 -2.94059
H 66.3275 55.9552 70.7365 0  0.950742 -4.04302 -4.46665
H 68.3953 61.1933 70.1131 2  -4.58308 3.45067 1.81997
H 68.7061 57.3982 70.6508 0  4.8652 -1.67484 1.20274
H 70.6708 59.7608 70.8384 0  -1.81489 -3.01368 5.64976
H 71.3494 60.8384 67.8448 3  5.04413 -2.86842 -4.29609
H 66.9931 63.8689 69.733 2  5.70198 7.07801 1.68765
H 70.2948 62.2549 72.416 3  2.42791 -2.38927 -0.460322
H 68.9281 62.3366 67.5054 2  5.50113 -2.81248 -3.01049
H 72.3081 62.1559 70.1907 0  -4.31206 4.34413 2.77269
H 66.3411 57.7779 73.1493 0  -3.07009 -5.21512 1.16564
H 66.0976 60.1891 74.8499 3  -3.13456 -5.30287 2.38946
H 68.5561 59.9153 72.8231 3  -3.6912 -3.43921 -0.088543
H 62.8601 64.3503 63.088 2  -1.24937 0.0562225 -3.29899
H 61.995 64.6792 60.383 0  4.21859 -2.51001 -3.13114
H 64.3164 66.3378 61.5248 3  6.22304 -2.45303 3.00662
H 64.0183 68.6657 63.1778 3  5.89422 2.60954 0.106012
H 62.5138 66.9016 65.1471 2  -5.13378 -2.16048 -8.00342
H 69.1279 63.1848 62.6899 3  -1.6031 -6.45286 -4.39016
H 66.8783 64.8347 61.8116 3  4.91121 2.28 -3.95521
H 65.1837 66.0533 64.2352 2  -2.16498 0.103015 -1.69927
H 69.2728 65.9808 63.1097 3  0.119843 -6.62692 3.30479
H 66.9293 67.7508 62.532 3  0.851179 -3.96378 -1.28632
H 64.8589 68.5755 66.1697 2  -2.46834 -5.71818 2.12953
H 70.1521 67.2659 65.5137 3  2.08267 0.253485 -6.83042
H 66.5396 69.9219 64.2744 3  4.52427 3.93966 -2.82666
H 69.2276 68.9113 63.3923 0  4.01997 1.84229 1.94975
H 66.1007 65.4537 67.28 2  6.02246 2.8676 -2.95079
H 64.3141 64.1893 68.7261 2  5.95342 -5.18917 1.16294
H 67.409 67.2636 65.4801 2  -1.91125 -2.39875 0.570096
H 71.1233 64.7196 64.8362 0  3.96695 -6.15205 2.69811
H 73.007 64.9981 69.7081 0  3.3033 -0.803475 3.41305
H 68.4964 66.4283 70.2266 1  1.09751 -6.73883 1.1193
H 67.1359 68.0885 68.3695 2  -0.147882 0.728597 0.259327
H 70.209 68.7896 68.2477 3  -5.92426 4.64576 -2.06444
H 71.7958 66.6004 67.577 0  2.36982 -2.29807 4.39182
H 68.5628 69.8195 66.3597 3  2.79963 -6.45255 3.99908
H 69.6916 63.7424 69.8215 2  0.847811 -5.97716 5.58506
H 68.9217 65.5661 67.5578 2  -6.42302 0.485621 -2.80761
H 71.6651 64.9807 72.1221 0  3.27255 -5.1558 3.96392
H 65.2679 66.7821 70.2787 2  1.33331 -0.06325 -5.99788
H 66.1147 69.3003 71.0433 1  -2.11834 0.876792 3.56377
H 69.6158 66.8869 72.9311 3  -5.04821 -1.51653 -1.75347
H 68.8437 69.0194 70.9843 3  2.02555 -4.15873 -6.5637
H 71.3493 67.1951 70.2959 3  -5.65481 -5.4092 1.51803
H 67.9316 70.8639 69.0524 0  3.71545 -2.4621 -1.37549
H 67.4664 65.3808 74.859 0  -3.63909 -1.12343 -6.46615
H 70.2127 64.2905 74.3769 0  0.786469 -1.44754 -1.21248
H 66.8289 67.8718 73.4473 0  2.0714 1.53006 -5.64725
147 
Lattice="100.0 0.0 0.0 0.0 100.0 0.0 0.0 0.0 100.0" DFT_PE=0.0 Properties=species:S:1:pos:R:3:tags:R:1:dft_forces:R:3
H 60.6313 55.2804 67.9953 3  3.17048 -1.93 -3.31479
H 62.7287 55.7336 66.2218 0  -5.66374 -4.96728 4.7043
H 60.4794 57.6836 65.9881 3  -3.14734 -1.95504 0.54501
H 62.8112 58.151 64.4085 3  -1.24448 6.42429 -2.77803
H 58.8177 55.719 70.3398 3  7.85929 -6.99958 -1.16803
H 61.605 56.5021 71.458 2  -5.14533 1.37603 6.66623
H 60.8663 58.04 69.0457 2  -1.24432 3.75414 4.02527
H 63.1941 55.6468 69.1691 2  7.02495 -1.93781 -6.00522
H 57.9839 62.5256 76.6468 0  -3.83306 -1.26281 -2.27075
H 56.689 57.3575 70.0073 3  -3.9808 1.54558 -6.43411
H 58.3213 56.7596 67.7156 3  -1.73979 7.19497 3.77744
H 59.0911 58.3116 71.5392 2  5.6628 -4.14626 -6.61133
H 60.7678 60.2644 67.3964 2  3.44737 -3.31566 5.38828
H 63.0991 58.206 67.3801 2  6.14552 -0.555184 -2.05621
H 61.0584 53.7708 70.6454 0  0.725842 1.71608 6.40354
H 62.6372 53.9739 73.1329 3  2.13608 -3.98741 -5.08369
H 63.8747 53.1303 70.5628 0  0.525725 -0.418915 4.91823
H 57.3916 56.3407 72.7978 3  -3.27109 5.36596 -3.13714
H 62.8499 57.8437 74.7367 2  -5.37798 4.62426 4.92803
H 56.2357 59.2084 72.3534 3  0.343626 3.94553 -5.11741
H 60.2245 57.7675 74.3475 2  0.934812 2.99619 1.19124
H 63.4795 58.2515 70.3351 2  3.35659 3.74016 -3.05418
H 61.3142 55.4229 75.5255 3  -1.72099 -2.63591 2.34455
H 64.1923 55.3389 75.3323 3  -1.98957 -2.4133 4.47523
H 59.9547 54.677 73.0252 3  2.59362 -5.03075 1.23647
H 58.4011 55.4813 75.4417 0  2.9982 0.225445 4.89601
H 59.9119 57.3808 77.1542 0  -4.60644 2.71059 -3.97331
H 65.8986 58.0265 74.8583 2  3.32152 -5.99652 5.39043
H 63.3871 61.8983 77.9707 3  5.11302 -2.64999 6.3224
H 57.3954 58.0791 75.1254 3  -2.26531 6.99951 0.165444
H 66.1863 63.2724 75.5685 2  -6.94712 6.26593 2.62042
H 64.7145 60.6844 75.5914 2  -0.886857 -3.7631 -3.27415
H 61.6755 59.6208 77.3037 3  -2.45681 5.35463 0.216624
H 62.0534 60.8454 74.696 2  2.25241 -6.35258 -3.21307
H 59.2445 60.1107 75.9986 3  3.444 0.517627 2.87011
H 62.8406 57.1139 77.4294 3  -1.93907 -2.97685 5.49934
H 59.2147 62.2903 65.46 3  1.16243 4.9324 -6.20526
H 58.1788 59.2701 65.8922 3  0.560385 -3.58343 1.70039
H 61.5588 62.7072 64.0057 3  5.53322 1.37588 0.677129
H 60.4449 59.9081 64.2742 3  6.18189 -3.81573 -1.57989
H 60.0988 64.933 65.5372 3  -3.44035 -4.79742 -3.50169
H 57.1469 61.7466 67.2218 3  -6.57269 -0.18663 0.508688
H 58.2983 59.5704 68.9514 2  3.99665 4.04332 3.71873
H 59.3017 62.571 68.7918 2  -5.8534 6.56581 -5.38896
H 57.7584 64.5626 67.1627 3  -3.24703 -5.80422 3.58079
H 56.0384 63.4293 69.2823 3  0.172637 -6.96511 5.59046
H 60.2609 64.987 71.6656 1  1.39055 -2.15723 -4.14566
H 60.2353 65.51 68.5484 2  -0.184602 -4.66381 -4.97292
H 57.0393 66.3814 69.0703 0  6.09516 -4.38187 -5.34127
H 62.0808 67.4282 66.8243 3  3.36218 4.84552 -7.31353
H 59.1559 67.1503 66.7838 0  -2.38326 -0.644043 -1.24847
H 55.7033 60.4751 69.9242 0  -4.01917 -2.73346 5.43704
H 58.8809 62.5942 71.5168 1  5.07561 -0.116637 6.04347
H 61.9205 63.5402 69.9122 2  -6.96703 2.0355 -5.41194
H 61.3891 66.1444 74.8009 3  4.61658 -1.02743 3.01542
H 57.1467 64.8714 71.5875 3  -0.970489 2.1733 -1.00128
H 58.8425 67.2563 70.9679 3  2.9971 0.749791 -0.552613
H 62.2314 66.5307 70.4206 2  1.838 0.121401 5.34274
H 60.6148 68.3976 68.9103 0  -0.0816662 -0.941178 1.95484
H 63.8003 68.4073 68.8177 3  3.05506 -0.0999782 -3.41506
H 62.4811 69.1446 71.1465 0  6.13774 -2.30622 6.17717
H 55.9531 62.354 71.9166 3  2.78968 0.427424 2.26438
H 56.5688 60.6957 74.6242 0  5.17099 4.14083 0.279792
H 59.0717 60.7292 73.3127 2  4.38107 -4.34672 -6.30277
H 57.6118 63.3874 74.0754 3  -0.249436 -2.09668 5.7825
H 62.0482 64.5633 77.4623 0  -1.03527 -1.39689 4.86259
H 60.7445 63.2006 73.531 2  7.38205 -0.0614745 -4.77209
H 61.737 59.1773 72.4361 1  -2.07615 1.93206 -4.6136
H 58.6466 66.0974 73.8542 3  -6.66235 -3.47651 1.47253
H 60.7465 68.1575 72.9742 0  1.14872 1.41891 2.21397
H 63.4026 63.2155 75.1666 2  -1.8658 -1.68838 2.61735
H 60.696 62.154 77.0462 3  0.447376 -6.10667 -6.40601
H 59.5372 64.6349 76.1151 0  5.91606 -2.77496 2.49107
H 55.7934 58.9942 67.5691 0  7.62843 -1.69407 0.483019
H 60.5303 60.5354 70.4321 1  2.26524 6.03615 0.949909
H 65.4245 57.1653 65.7331 3  0.447323 0.332323 -3.95182
H 65.4189 59.5855 64.4179 3  -1.21952 -6.55202 4.74634
H 66.177 61.8496 78.2277 3  5.37711 -2.32943 6.3281
H 65.9749 55.0887 70.5198 3  5.85695 3.85391 0.115504
H 65.4777 54.7743 67.594 0  -6.66489 -0.240071 -3.22968
H 65.6458 57.3013 68.8442 2  2.19208 6.12222 1.37392
H 67.7222 56.4137 66.7627 0  -2.32572 -2.1097 2.55248
H 68.4287 55.9699 69.4567 3  -0.131882 4.34757 -4.3704
H 69.8789 58.1086 67.6567 0  3.44313 1.59601 4.32409
H 65.4508 59.9279 67.455 2  0.720442 2.13572 0.118687
H 62.9541 60.9196 69.0164 2  -1.46448 1.35681 -7.36018
H 67.8155 59.0925 66.0445 3  6.18602 -4.73061 -0.259305
H 67.7448 59.3447 69.0593 2  -6.55458 1.27394 -0.562714
H 70.4289 60.2623 69.7159 3  2.72906 5.96164 1.32955
H 65.4832 54.0199 73.0892 0  -6.6439 3.2648 -1.1642
H 64.6066 56.6575 72.6854 2  2.35905 -1.02689 5.62108
H 66.7747 58.3046 71.5504 2  -3.71817 -0.0613929 -7.42171
H 67.9715 55.6207 72.3485 3  1.32346 0.772807 -6.68429
H 68.5546 57.7547 73.8726 3  -0.247365 -2.21072 -2.75892
H 64.4673 59.5398 72.898 2  -3.83332 -5.91783 -4.26374
H 65.5133 60.7599 70.4182 2  0.702513 -3.7045 -1.50538
H 67.0824 62.1797 68.5468 2  4.61281 -0.954638 -2.1061
H 69.6329 58.0247 71.0212 3  -1.1853 -5.69123 -4.25114
H 71.0537 62.591 71.685 3  1.92818 1.78015 4.96477
H 67.0885 55.4737 74.8671 3  0.208717 -5.71274 -3.71131
H 67.4214 60.5448 73.9459 2  2.17681 -3.31807 -3.18912
H 68.5785 56.7939 76.8429 0  4.79136 2.40578 0.613995